% Model:              simple_interferometer_with_waveguides_for_nn.mph
% Version:            COMSOL 6.0.0.405
% Date:               Apr 11 2023, 14:16
% Dimension:          1
% Nodes:              1694
% Expressions:        49
% Description:        Line graph
% Arc length (m)          (emw.normE)^2            (emw.normE)^2            (emw.normE)^2            (emw.normE)^2            (emw.normE)^2            (emw.normE)^2            (emw.normE)^2            (emw.normE)^2            (emw.normE)^2            (emw.normE)^2            (emw.normE)^2            (emw.normE)^2            (emw.normE)^2            (emw.normE)^2            (emw.normE)^2            (emw.normE)^2            (emw.normE)^2            (emw.normE)^2            (emw.normE)^2            (emw.normE)^2            (emw.normE)^2            (emw.normE)^2            (emw.normE)^2            (emw.normE)^2            (emw.normE)^2            (emw.normE)^2            (emw.normE)^2            (emw.normE)^2            (emw.normE)^2            (emw.normE)^2            (emw.normE)^2            (emw.normE)^2            (emw.normE)^2            (emw.normE)^2            (emw.normE)^2            (emw.normE)^2            (emw.normE)^2            (emw.normE)^2            (emw.normE)^2            (emw.normE)^2            (emw.normE)^2            (emw.normE)^2            (emw.normE)^2            (emw.normE)^2            (emw.normE)^2            (emw.normE)^2            (emw.normE)^2            (emw.normE)^2            (emw.normE)^2
0                         4391.923147163968        90467.62184140168        9303.886757179467        618.0479446409613        589.2847795466012        3535982.8676995398       217778.79191227644       2106009.431953236        753.4098035138811        15850.71925211538        1.8135153993358474E7     135902.55684469728       54985.44905456169        116408.142101872         13578.19067985711        674812.4108925565        2273032.3779115076       135952.5241394425        2733265.816231036        1002667.6490618207       2.141365951868286E7      942049.737947203         1667257.2976986088       162556.6636507778        708047.6515357961        1314.8338009551628       160160.19668869584       130970.22478475318       358926.10785931983       21427.601883400486       1825739.543646787        2221518.2347158706       13565.7386801447         385684.0002128269        3467375.055243493        1.1675032084251177E7     84.96891777371675        800154.7618688688        211604.16541463125       443046.4705520642        2864513.8486941834       17120.398833077554       76550.27655291367        653263.8263999409        6352.83894965186         4832.919151191232        276495.88434115326       252920.97382349527       2673041.102501885
1.4614186385347727E-8     4391.922716139385        90467.60595526977        9303.885050330848        618.0479068018816        589.2843910159           3535981.849978428        217778.7504705337        2106008.935490155        753.4092112420851        15850.717254008334       1.8135148923835833E7     135902.5296255777        54985.441866502006       116408.11988731842       13578.188962653328       674812.2356074194        2273032.231467514        135952.49600367152       2733265.169348647        1002667.3983071628       2.1413654051821984E7     942049.46877311          1667256.9478427416       162556.63092948438       708047.4898313688        1314.8337353059017       160160.15690388533       130970.19865525211       358926.0386017321        21427.598797740924       1825739.1603242792       2221517.729544082        13565.736847200355       385683.8945709503        3467374.3370026015       1.167502965002755E7      84.96884402251975        800154.542408519         211604.1269834448        443046.3686279083        2864513.2182797114       17120.396247727356       76550.25517897114        653263.6850692346        6352.838233369467        4832.917911800562        276495.8286517444        252920.92680916074       2673040.528072853
7.294472282335165E-5      4548.469098451874        95823.9200290391         9521.615986221132        630.5329041446092        571.3647145335791        3620881.95442899         225525.95267940266       2157383.042036321        707.3869577373014        16295.365966095475       1.8589033952964604E7     140853.1574076695        57534.82902771784        123040.99825081424       14348.770707796697       696706.8247589831        2376644.866376375        140734.6103681525        2810586.9177727005       1037649.0627294069       2.1945559991741784E7     970549.7373218214        1722453.806609531        167603.79727203771       730330.2808092175        1365.700062517786        165780.11528816316       135031.72616897          371556.6830518622        21968.23843641171        1885109.338782771        2296097.0192518216       14250.9725783592         399321.63018764          3585695.1524095484       1.2048520508008264E7     117.11975252310188       826954.7155981704        219473.3673364351        456610.8642800077        2961188.917298518        17649.424604719217       79047.53177799664        676525.5563486246        6538.110565583447        4991.686883901661        286048.1655064435        262475.61606941384       2760866.661685249
1.4587483146033184E-4     5151.197172718406        111494.37286912205       9838.419171911224        744.3744441811255        487.14874692449325       3843476.4416134837       246852.9687428368        2296365.5686836117       556.2311949406285        17463.783200075188       1.983950838725402E7      154838.63013918154       65237.04772066351        141579.2497158101        16947.97642814848        759090.269559282         2662827.564488987        154002.90010642214       3018854.2918166346       1131928.9680358304       2.339317181791866E7      1051570.3988288576       1871632.4011761697       182141.28022516737       791957.2660973498        1613.0609058541577       179928.0245136024        146009.48379789194       409915.4344341574        23125.453594707444       2048958.8395872773       2501703.5930315903       16535.88120387716        438619.4171204715        3918366.686591638        1.310391853031611E7      231.30932428736008       898247.6484474998        241596.48089670332       495327.6440638152        3227460.7068768055       19149.757201206314       85852.64720313832        740672.9537462216        7228.120677210166        5719.463853087034        313550.6047198094        290764.5271027179        3008939.807904875
1.458894456467033E-4      5151.373539331713        111498.46103763265       9838.462286594484        744.4154236683427        487.1249871519894        3843530.5964089273       246858.31140741985       2296399.9057521718       556.1913066114353        17464.069423715056       1.9839821631405886E7     154842.1990168208        65239.07500153607        141583.98187640923       16948.700653544536       759106.2110797217        2662899.431734064        154006.25616641407       3018905.7787455306       1131952.3599344362       2.3393531575102583E7     1051591.0706823983       1871669.4421283545       182145.00272140926       791972.7484720635        1613.139183605669        179931.41761727232       146012.21406230272       409925.55456080433       23125.700269502948       2048999.974348214        2501755.2487784973       16536.513607628258       438629.52017560345       3918451.077943192        1.3104186830278361E7     231.34386720053942       898265.1974797087        241602.1062010048        495337.5201118948        3227527.572037054        19150.140591836658       85854.34880334101        740689.0670533172        7228.319549606471        5719.6892487457435       313557.6528737441        290771.8921110088        3009002.845817456
1.4590405983307478E-4     5151.55040068172         111502.55196525711       9838.504472398157        744.4567991953493        487.1004744959453        3843583.697948293        246863.64285770946       2296433.871696309        556.1504378524523        17464.355045838565       1.9840129698133282E7     154845.7450683867        65241.11081998707        141588.70628947805       16949.425208675035       759122.0011085855        2662971.8677972225       154009.58465028214       3018956.7365037813       1131975.5337705296       2.3393886162417747E7     1051611.4716685542       1871706.223345121        182148.71294077515       791988.1140027492        1613.2180135850456       179934.76480279604       146014.9199648736        409935.64723546366       23125.943927956676       2049040.8591687088       2501806.5113154375       16537.146335129437       438639.53451186506       3918535.0338819437       1.3104453515478397E7     231.3784822000478        898282.539790222         241607.71269143597       495347.32157748105       3227593.9534072224       19150.522682098926       85856.0257437484         740705.0781484887        7228.518878449193        5719.913323167647        313564.6746258026        290779.24863554153       3009065.5261000674
2.188341684700515E-4      6330.631265412971        135527.50734257363       9833.713166802387        1080.3237565978077       346.44693381013565       4125885.1145995897       276509.53794903174       2481490.6515021357       327.93188049517136       18996.117183346585       2.1544726405394383E7     174921.7628769872        77323.16249141697        168559.32191313137       21523.13655577441        848929.8767487918        3068584.5806240337       172611.87241400947       3296201.6313471077       1258691.985632857        2.5335674598019306E7     1167299.3870578723       2072812.8488235944       203379.74541999082       877492.7546931886        2184.22044535643         197326.4800637168        160795.1837024948        469753.051614265         24153.825054740282       2276089.2811908415       2786694.2852760847       20498.855393588972       496101.32045924326       4391512.192751769        1.4610043620065076E7     484.6671489236718        992073.1443674662        273286.6803958465        551010.370943972         3596110.765788008        21319.672789813943       95088.76908095097        829708.2194303939        8536.17954876044         7300.232994055921        353696.04224822496       333728.44382064685       3363069.7567592673
2.9176427710702474E-4     8113.1558582258895       164570.4663992043        9256.400854719233        1746.3854066123417       225.11629616131185       4372615.890739285        307459.141919504         2659100.097651845        107.2787932472183        20473.69960242157        2.3233695404281992E7     196691.0596535751        92162.18202234736        199225.99170891137       27814.23835848444        946202.2046903799        3510759.6762873903       192102.75937583603       3562543.8911330537       1383057.7822013323       2.7211408220468648E7     1290275.5421590148       2271130.1812079432       226935.56850912518       965609.4785039282        3166.5194737110924       212124.87478048555       175277.27920873085       541844.3455227164        24377.30952495109        2509927.393188135        3080175.090974263        25860.985702655456       559696.2239249331        4897419.627247253        1.622332876486909E7      944.0889166510224        1080659.1951893761       307777.224818466         610927.0313149462        3975004.6317751827       23714.938497777675       104184.17300889568       921457.2404867156        10457.729495527305       9829.136033131697        397919.16379802546       383956.25989327254       3743030.4074671906
2.9177889129340315E-4     8113.5717832696055       164576.55185759134       9256.219399910939        1746.5581031578663       225.10174266890803       4372655.983762556        307465.0047749275        2659131.5033337804       107.24313532054741       20473.96504271946        2.3234002288756426E7     196695.2938686644        92165.30336792153        199232.2007981109        27815.642132479774       946221.0917596327        3510846.107911513        192106.46188153117       3562591.048398689        1383080.2334819536       2.721174155065921E7      1290299.0654575638       2271166.0922889975       226940.21147761968       965625.9901267681        3166.761400329627        212127.24400411916       175279.88502992154       541859.3230570321        24377.2381163166         2509971.2081643753       3080230.13666611         25862.171999982846       559708.7477468882        4897517.018560035        1.6223639503153719E7     944.2053762322732        1080674.6754572554       307783.96454763896       610938.575212146         3975075.5798107097       23715.41164114212        104185.81623497735       921474.4221301996        10458.172082142713       9829.735487627318        397927.818809207         383966.50516371056       3743103.691836957
2.9179350547978156E-4     8113.988466100094        164582.6407656881        9256.037777595571        1746.7317201644576       225.08702553518637       4372694.864902541        307470.85924375826       2659162.507800077        107.2070188011992        20474.230053596253       2.3234303238246307E7     196699.49905305155       92168.43766389453        199238.39770295695       27817.04491640445        946239.8023389223        3510933.2784778806       192110.12982677508       3562637.57636792         1383102.4121125522       2.72120688678563E7       1290322.2706145637       2271201.6706130854       226944.844654814         965642.3743168253        3167.0043581184873       212129.55994541396       175282.46154347112       541874.2725636486        24377.163252261475       2510014.716270825        3080284.7018167083       25863.358023214187       559721.1663285593        4897613.884027815        1.6223948279952426E7     944.3219539919814        1080689.9092421953       307790.6830290841        610950.0305808351        3975145.9247618043       23715.883483043654       104187.42863419425       921491.4745865925        10458.615471988147       9830.3329278359          397936.4398733174        383976.7436895297        3743176.5524181165
3.6472361411675133E-4     10407.623009950561       194493.72769557888       8066.341345110375        2808.3627738060704       247.29325450932595       4497917.214566876        332666.431129148         2779104.0505076116       19.564454023887937       21516.165897103972       2.443965080260062E7      215237.91124716625       107661.71816729681       228392.75622218856       35153.56780093405        1029070.4325045688       3904923.0861302437       207684.23167055243       3741053.0985570224       1470614.698522404        2.8474442261831492E7     1390535.682996402        2412292.7717666337       248034.30924753097       1034631.2244252823       4581.193100884506        219195.65147337422       185289.5268406174        614297.2959512487        23337.088197721598       2692933.5293350383       3309616.3675607084       32011.669163504044       615802.5914514583        5321414.434977477        1.7575127637078688E7     1643.6003277973284       1137438.1625894073       337801.15102452214       661117.6408130456        4269842.312654652        25851.86839837153        110476.29427918688       992862.234463823         12869.658899215272       13149.794041153915       436543.4544180785        432547.3411033813        4063133.775584718
4.3765372275370376E-4     13017.557739508484       221179.78915646687       6423.091773111694        4267.122694770442        556.0806758265753        4454299.218617814        346989.644274892         2811640.5245524426       205.54413643368028       21872.71635927614        2.4850531266549446E7     226341.82462903735       121789.52708100039       251374.28937539842       42563.59369347809        1080083.193912814        4184519.9634357365       215390.2030601631        3781137.114059842        1496671.144774625        2.876801249799885E7      1444410.4456033744       2457138.8013970433       262920.1396017875        1068694.8159821487       6369.8208268769295       215352.2632036823        187684.53996719385       675711.5016932571        20906.702941526084       2782469.7539654206       3420391.714685263        38116.529573064836       653082.2536595035        5572713.832554952        1.8373520047938224E7     2547.8036641492195       1144517.87658102         357374.39716888126       690449.7029120945        4409402.582344686        27325.116398482845       111923.9805932388        1025999.5711797152       15556.98913078108        16865.255686485394       461448.37510396424       471478.216819021         4256013.513166633
4.37668336940103E-4       13018.098580950742       221184.5896602725        6422.730552333521        4267.452945769969        556.1808208317067        4454272.748796528        346991.2038450377        2811637.4910014225       205.6180661095555        21872.709756385466       2.485052473982605E7      226343.10389024322       121792.10776994623       251378.0405390034        42565.022708030694       1080089.4944933024       4184560.9849868314       215390.77836587012       3781129.612090937        1496669.2620451748       2.876796339261137E7      1444415.6401663935       2457136.587753414        262922.3323396659        1068697.5099088692       6370.211041643904        215350.30380845768       187684.12343865627       675722.1168881336        20906.08058662381        2782476.611644311        3420399.813725773        38117.695735848014       653087.3386514619        5572742.903780121        1.8373611931652218E7     2547.9999064609733       1144513.7061479327       357376.9941874213        690453.0039363978        4409412.088847531        27325.326199658768       111923.70439711951       1026001.59501326         15557.541075724008       16866.00956386692        461451.6025275714        471484.64444274997       4256036.506811706
4.376829511265057E-4      13018.640252035339       221189.39361048795       6422.370120650676        4267.784699670218        556.2819646971147        4454245.061892227        346992.764069705         2811634.0942604155       205.6925250674873        21872.7028664304         2.4850512127156574E7     226344.34828977153       121794.70663525313       251381.77366732547       42566.44707181352        1080095.6142334845       4184602.8861458697       215391.31322875625       3781121.446582887        1496667.0802197321       2.8767908027068377E7     1444420.505416397        2457133.9874496707       262924.52314885205       1068700.087181305        6370.602770933537        215348.2895355788        187683.67458831726       675732.7063713474        20905.45461022186        2782483.1194951884       3420407.371967896        38118.859395213585       653092.3161230076        5572771.390316657        1.8373701586205095E7     2548.1961700110987       1144509.2841589192       357379.5688837673        690456.2155120665        4409420.894148058        27325.53468881662        111923.39357377705       1026003.4723987784       15558.094044895623       16866.760297326644       461454.7923807977        471491.0698923718        4256059.038807688
5.106130597634546E-4      15675.86285776184        241307.483685223         4604.864233164417        6051.611149538842        1277.8463670515073       4245706.603596629        348331.55873395427       2755115.162687031        789.3194716558162        21452.014076496765       2.43934427287416E7       227343.1748644979        133050.0456764152        264749.0436867097        48943.88527588279        1090534.5496914128       4313449.730607434        212884.1526238977        3670837.148854982        1452004.295245026        2.8017718943616502E7     1440782.6126430659       2390308.428569867        269805.2360580631        1061549.1934276556       8400.482040964456        199868.29019886328       180993.43920423233       717855.2155787243        17290.44077238387        2760488.318917271        3388033.6452705883       43285.1206924713         665372.2684724417        5605154.65479767         1.8471153348453898E7     3543.54440426598         1097104.3831106194       362999.44284628774       693507.6506324222        4361410.70195477         27878.984962719816       107594.65725674649       1012150.4585610501       18254.357748644397       20433.398341685825       468111.0686597449        495523.5698141061        4288517.668150245
5.835431684003897E-4      18091.904613272636       253063.18158791048       2917.3856614377705       8022.543338927024        2486.5900961924913       3930720.2328795902       338267.9408772553        2638522.284221723        1845.2341873048229       20329.973291788374       2.327308411972855E7      217803.55398523423       140863.6461958755        267002.72778372496       53303.0796588934         1063305.6371517144       4294054.337205431        200047.96357746562       3442189.00917586         1346138.776194291        2.647178944261744E7      1385235.2812402588       2225023.256667583        269450.805250286         1018674.9291410337       10485.76566481061        174642.0255599933        165851.69669305708       737788.0213707339        12979.154891914417       2638877.3850119025       3225369.827977824        46763.104057474375       653737.7600576059        5430326.447139315        1.7908032309389893E7     4462.661124766184        1005750.4888275488       354474.1852437427        672535.9990174646        4141829.9031103863       27456.864610243854       97994.98210307308        954456.3767440731        20694.87602824965        23318.49118603076        457073.66929378017       503690.5607454765        4171547.2453879504
5.835577825867959E-4      18092.348300004072       253064.65383264655       2917.074241446594        8022.947076460658        2486.8837045377068       3930651.780479738        338264.97881965904       2638495.549726358        1845.4958480581763       20329.68632266467        2.327281556852087E7      217800.6410490295        140864.86217710635       267002.04848106875       53303.70434932961        1063297.01999777         4294036.448825592        200044.42900314063       3442134.6643908974       1346112.6432676571       2.64714257671457E7       1385219.9428871034       2224981.9832798243       269450.13498341857       1018663.4686695129       10486.176896965482       174636.18440590688       165847.92055287657       737789.8289485535        12978.255456360219       2638844.7370831133       3225326.235444128        46763.59761463254        653733.3821120105        5430273.320528326        1.7907862221568476E7     4462.82633307216         1005728.9292116454       354471.1543836614        672529.7977507926        4141771.3353333045       27456.68520251249        97992.61618880877        954441.0113020382        20695.325254439875       23318.97500934953        457069.89308306936       503690.6991204031        4171511.005334242
5.83572396773202E-4       18092.792458056138       253066.12892587407       2916.7640094509793       8023.352542048514        2487.1796687593105       3930582.33951975         338262.0309492824        2638468.5635341485       1845.7590773331667       20329.39908384094        2.327254175706763E7      217797.69193555892       140866.10005022908       267001.34637401137       53304.31894559794        1063288.251436754        4294019.4703772          200040.85380356183       3442079.7399906428       1346086.2472712842       2.6471056603971336E7     1385204.326631515        2224940.3305565882       269449.47465305764       1018651.9268839513       10486.58977018453        174630.29676997784       165844.11425961694       737791.6145857195        12977.352964010532       2638811.7365355385       3225282.111531693        46764.08497557421        653728.9192001689        5430219.625100821        1.7907689879606757E7     4462.991319568599        1005707.1722886289       354468.10227942007       672523.5292122117        4141712.049219176        27456.50441516646        97990.2184948074         954425.5083437521        20695.775299461995       23319.454872668382       457066.0860381027        503690.8416371972        4171474.3230176824
6.565025054101475E-4      20000.723766208586       256460.83934948215       1590.8273671899087       9994.331152071232        4179.961815517889        3603526.2694201735       321394.69745883165       2511090.521510726        3373.2128090931556       18690.098527017402       2.1898003781847373E7     199400.8919512895        145652.40796944758       258662.15226030082       54971.445710929154       1011493.2432890564       4163279.7806793987       178802.3027838633        3159709.265091041        1204182.949589968        2.4611514590123504E7     1298113.9579237327       1997638.7151037117       264796.48786773434       955092.1648257881        12415.664147272963       143450.64219913082       144673.29037353257       738045.6654479228        8598.753112932603        2453723.831788179        2976127.6346716606       48087.12812341657        626030.8720788315        5109894.008880571        1.6884903430728406E7     5139.962664761192        893260.9381196293        334537.88760989095       636634.7120597743        3806685.7213309617       26171.988953404994       84909.12543856636        866522.2166732424        22649.918368361363       25165.325653163327       433678.9184950365        499184.22540366073       3953699.4911861653
7.29432614047093E-4       21210.742720371043       253472.66991567562       726.7297318153014        11763.932531282582       6265.890332319293        3370291.976703618        304346.7059548271        2429322.22830172         5282.984711723903        16775.117209534117       2.0778068236740235E7     175625.42396229244       148767.28577634896       242318.98248420891       53781.48771552171        955566.221894499         3986049.9266023296       152754.53009529389       2905058.3925489974       1061837.8832537625       2.3032244794828366E7     1210324.175992636        1759811.8443503068       260281.0591581315        891992.2997619413        13994.099427785219       111152.65483266268       121179.62428130851       726038.8082229027        4776.419449891807        2256811.920291386        2705063.5440400154       47205.38904351745        595392.7863702055        4741910.703926905        1.5717091233695434E7     5486.495117696724        790030.9880745069        308256.03067466046       599964.7921152822        3439445.1622775155       24273.44948622059        71083.69804055007        769817.1935665701        23965.031895116044       25951.79255578767        407116.2743567298        488757.8884075426        3710076.1668991745
7.294472282334957E-4      21210.90720601622        253471.60233436222       726.6005577468732        11764.255077540349       6266.33926757136         3370260.4735521954       304343.6609537022        2429313.413675275        5283.397490932649        16774.71761657777        2.077789928065059E7      175620.35862661147       148767.83697993503       242315.10927589802       53780.97674941373        955555.9278251089        3986013.533921315        152749.06852766487       2905014.849601182        1061811.543208553        2.303199066591178E7      1210308.534939515        1759766.2687511288       260280.43507047897       891980.9790538871        13994.370091966803       111146.34633138157       121174.91351100175       726035.7149531886        4775.739051871329        2256774.4177537896       2705011.059738836        47205.005582482794       595387.2382440425        4741838.391476861        1.5716862628216803E7     5486.531408694507        790013.0748929464        308250.4489344876        599958.2768451599        3439373.554409609        24273.022735953342       71081.03445374896        769798.3076547399        23965.225087872306       25951.860604772595       407111.2406351986        488755.6659856935        3710029.4691617615
7.294618424199019E-4      21211.071378567678       253470.5350922427        726.4720476632278        11764.57897353308        6266.79146098619         3370228.2876164657       304340.6413311991        2429304.448874861        5283.812285871114        16774.31755749825        2.0777726175306067E7     175615.26052912296       148768.41006116843       242311.2098812105        53780.45045967702        955545.5223760334        3985977.9400263014       152743.57184383          2904970.859449115        1061785.0199135286       2.303173217881405E7      1210292.6956850947       1759720.368523902        260279.83084960762       891969.611484793         13994.641991849032       111140.00500566309       121170.17889774485       726032.5964375362        4775.056788527184        2256736.570703031        2704958.0827821624       47204.61192464811        595381.6388486857        4741765.544998849        1.5716631812106151E7     5486.567358786871        789995.0500554688        308244.84617914          599951.7302836478        3439301.254303794        24272.59437086411        71078.34765035691        769779.313649291         23965.418363978722       25951.925003141383       407106.19215745444       488753.4500866772        3709982.352981469