% Model:              simple_interferometer _no_waveguide_for_nn.mph
% Version:            COMSOL 6.0.0.405
% Date:               Feb 14 2023, 13:18
% Dimension:          1
% Nodes:              1008
% Expressions:        1
% Description:        Line graph
% cln1x (m)               (emw.normE)^2
0                         6007.782267843514
7.283830926109805E-5      6302.95943876114
7.294482139721947E-5      6303.804362983459
7.305133353333743E-5      6304.6494354817
1.4588964279444241E-4     7211.003711575128
2.1872795205553006E-4     8676.41413595384
2.1883446419165495E-4     8678.881868518318
2.189409763277729E-4      8681.354701162822
2.917792855888744E-4      10547.863777968854
3.6461759484996553E-4     12576.46254225673
3.647241069860904E-4      12579.447746544873
3.648306191222049E-4      12582.434304914375
4.376689283833064E-4      14494.278641547375
5.105072376444114E-4      16020.58589303241
5.106137497805224E-4      16022.49515949285
5.107202619166334E-4      16024.390857616783
5.835585711777419E-4      16943.715177636146
6.563968804388469E-4      17128.03215113478
6.565033925749579E-4      17127.795168991644
6.566099047110759E-4      17127.52631269343
7.294482139721774E-4      16542.34818328116
8.022865232332893E-4      15266.771825266866
8.023930353694003E-4      15264.466517649098
8.024995475055148E-4      15262.119392735634
8.753378567666163E-4      13448.332644936083
9.481761660277283E-4      11313.138842751321
9.482826781638393E-4      11309.839699072954
9.483891902999537E-4      11306.501932904403
0.0010212274995610622     9075.797270740584
0.0010940658088221672     6962.483268738778
0.0010941723209582782     6959.512627276612
0.0010942788330943858     6956.513941319707
0.0011671171423555012     5122.470619269801
0.0012399554516165992     3663.4430536744044
0.001240061963752724      3661.5903501858625
0.001240168475888849      3659.7180444200344
0.00131300678514994       2601.5094284357633
0.0013858450944110243     1904.8398456694629
0.00138595160654717       1904.0682114808926
0.0013860581186833157     1903.2790302359228
0.0014588964279443964     1487.3885464952027
0.0015317347372054285     1251.8821406538166
0.0015318412493416297     1251.6446476253436
0.001531947761477838      1251.3884927073398
0.0016047860707388527     1105.0843544970226
0.0016776243799997773     987.6001189058172
0.001677730892136093      987.4440751424089
0.001677837404272419      987.2708339855636
0.0017506757135333263     881.2523543967425
0.0018235140227940115     815.2235776935597
0.0018236205349305805     815.1820345046087
0.0018237270470671495     815.1303963510793
0.001896565356327807      851.4558823052026
0.0019694036655880237     1067.0952086414193
0.0019695101777250784     1067.5688465489527
0.001969616689862133      1068.0446801778735
0.0020424549991223083     1529.7926911088252
0.0021152933083816126     2269.925232023122
0.002115399820519625      2271.189340731227
0.0021155063326576337     2272.470852166843
0.0021883446419169        3273.75394493529
0.0022611829511744834     4463.805495381931
0.002261289463314265      4465.599496077801
0.002261395975454057      4467.425485107804
0.0023342342847115123     5728.669166230765
0.002407072593965588      6919.955070715926
0.0024071791061089434     6921.552272844265
0.0024072856182523056     6923.190520989799
0.0024801239275062496     7907.6291578797545
0.0025529622367538203     8585.122902644502
0.002553068748903903      8585.862365927704
0.002553175261053999      8586.64228913908
0.0026260135703013963     8913.664635071398
0.002698851879536796      8919.505590192335
0.002698958391699348      8919.340086990334
0.002699064903861924      8919.205320921761
0.0027719032130969976     8695.161885180074
0.002844741522308583      8382.005880399793
0.002844848034495147      8381.568723832346
0.002844954546681752      8381.149325128072
0.002917792855892786      8130.745070266601
0.002990631165057614      8079.242408184387
0.002990737677290932      8079.336754692983
0.002990844189524333      8079.439106291191
0.0030636824986883075     8309.484279112356
0.003136520807760442      8837.259947701841
0.0031366273200848123     8838.18606691849
0.003136733832409356      8839.11492116167
0.0032095721414789995     9605.481422510375
0.003282410450370501      10492.538572702639
0.0032825169628661888     10493.830866897983
0.0032826234753622445     10495.121005729532
0.003355461784220661      11348.421544215636
0.0034283000924061856     12012.739434394221
0.0034284066055854656     12013.531804427637
0.0034285131187665324     12014.314086024076
0.0035013396448511126     12361.125783821355
0.0035741865652541213     12318.500814591052
0.0035742566845212084     12318.288448938381
0.0035743270914454853     12318.092353872367
0.003647159090059141      11874.543490970253
0.0037197990002379756     11087.537895114347
0.0037200757761242202     11084.066803929716
0.003720355008284614      11080.59653962787
0.003792932554047234      10045.910291902752
0.0038646796644807233     8904.558824235113
0.0038659202135597932     8884.472336545612
0.0038672083724982133     8863.65581718176
0.0039390927655233166     7724.209118673812
0.004008536795604992      6729.333689867227
0.004012339008138188      6678.417701082129
0.004016360572260486      6625.095708776177
0.0040851627747439875     5833.011483402601
0.0041464676550977235     5310.732327378069
0.004157035193832339      5236.774315805696
0.004168397250453596      5163.242519150935
0.004232462009431805      4892.491691463443
0.0042806335887450135     4831.675217152737
0.004299665963635069      4841.977717877873
0.004358966328190463      5007.433548023311
0.004381458945861295      5124.025512176717
0.004445947762229018      5635.173957454249
0.0044720252617323        5920.64757947813
0.004534131148767044      6798.544401940549
0.00456342280194998       7317.112685808256
0.004624204462992686      8617.586203840825
0.004654146527565465      9378.438079599153
0.0047144076352004325     11146.883918341126
0.004744522647077113      12155.987928639115
0.004804545698664817      14392.113542438825
0.004834655260821771      15627.850550422643
0.004894748497297008      18274.286716741568
0.004924877065542094      19685.529402678065
0.004984907657494399      22599.03795898751
0.005015035819062468      24099.281551594766
0.005075015294512923      27086.931107147222
0.0051051464109719506     28570.283250009485
0.005165111712418211      31418.00889249443
0.005195244748067332      32777.372121814944
0.005255203029795919      35287.64055312225
0.005285337080764044      36435.710920793164
0.005345293272248279      38466.952426309865
0.005375427498375234      39352.67805446208
0.005435383315476574      40844.32388357527
0.00546551754741083       41460.524073080174
0.005525473383937014      42438.43644363159
0.005555607683722671      42818.70278140009
0.005615563504171139      43379.95804847007
0.005645697825449644      43586.21432025071
0.0057056536613394725     43868.39112274787
0.005735787912861733      43973.05195261939
0.005795743690928902      44117.40945675874
0.005825877941515043      44185.43128603853
0.00588583371085441       44304.669482514204
0.005915968041543649      44380.52020976692
0.005975923820623844      44539.831520073865
0.00600605819187138       44642.619652709574
0.006066013974300623      44858.20548208813
0.006096148297973496      44985.521221714225
0.006156104060917204      45239.13281502976
0.006186238333472701      45377.45747845304
0.006246194085486847      45640.68961974442
0.006276328403799651      45778.38790884931
0.006336284183647085      46037.971124598436
0.006366418556953418      46176.46818317344
0.006426374388591083      46452.405992256754
0.0064565087400194135     46612.22900881833
0.006516464691939863      46963.915884854
0.006546598985397188      47184.36488974758
0.006606555234614429      47704.42831218962
0.006636689509088391      48037.912894688234
0.006696646075662532      48837.63232889276
0.006726780331806841      49341.30250377304
0.006786736212193457      50533.522107436744
0.006816870469631616      51261.18102656741
0.006876826594916386      52946.16255155109
0.006906960854741391      53942.5566850978
0.006966920155927744      56199.35467683577
0.006997053946127709      57497.25441597089
0.007057021131806677      60379.77028270897
0.007087151189529076      61998.56628419045
0.007147141851091499      65533.4898891996
0.007177250675511686      67476.78674738065
0.007237304469870233      71659.92382582999
0.007267355704335253      73911.23352361353
0.007327512793041065      78697.31725019458
0.007357475566960311      81216.1516079787
0.0074177495026726235     86504.38817306203
0.0074476470242858025     89225.67079380022
0.007508043330765879      94850.89957834902
0.007537932669851057      97681.4911976149
0.007598467739878524      103413.87214963815
0.0076283392903805525     106224.7069086865
0.007688948590725619      111772.34603411904
0.007718742371802777      114409.18456694976
0.007779124657278688      119435.76849506954
0.007808831903006484      121747.10089215085
0.007869135180525098      125973.23904247508
0.00789901372603869       127840.77645999235
0.007958857677610325      131007.35055417853
0.007989618488841986      132352.17128298862
0.008048862552342433      134310.14701175084
0.008079818122761909      135026.44178791356
0.00813976876197229       135762.43665059438
0.008169647617670436      135838.63811936346
0.008231892092926383      135363.63330187756
0.00825999890069282       134903.53924982945
0.00832025943534548       133421.49166017334
0.008348048961649684      132544.82182083718
0.008406721522144067      130340.36628268019
0.00844316232466294       128772.91839544497
0.008500720858886547      126069.91375398698
0.008523334507448438      124952.6651145641
0.008584008618236716      121863.36658409993
0.008602270412943317      120928.29883759165
0.00866516941479828       117718.63501348416
0.008682721498668382      116851.96115995641
0.00874535845025164       113866.0089791756
0.008775768187339552      112528.56959974686
0.008829548893509105      110363.8454672557
0.008852884498557305      109535.8314595595
0.008901471757158268      108012.8742686767
0.008933282290859098      107206.04863523635
0.008962197816663011      106608.35008228672
0.009008451184108122      105933.64076074849
0.009019806024972401      105828.61543075519
0.00906036522850974       105638.37913697623
0.009106813256364789      105799.5921502457
0.009128265465923154      106028.45591026712
0.00917808185514171       106907.26606058923
0.009194869715689996      107324.4352111411
0.009202458720108         107541.20407388256
0.00926378279232742       109650.06059895836
0.009313154425239518      111922.77434714437
0.009332561437745045      112951.86921479045
0.009368044380455404      115042.0268054735
0.009398840005995395      117049.62027278305
0.009415126988309258      118187.66413417754
0.009457215753192406      121341.93624718876
0.009501977545950398      125023.17821359092
0.009520475760824057      126637.6937084626
0.009537775571082681      128189.84389957778
0.009592466977240293      133356.040618676
0.009644805263909206      138604.04946055706
0.009659815153777748      140136.24252286128
0.00968379287532505       142650.5706711439
0.009727154102635895      147264.3519296963
0.009756566342409161      150420.83776342537
0.009794856423960916      154543.24439488858
0.009848781900550685      160338.64198999267
0.009863065445411443      161856.90007170528
0.009873941802555956      163008.43282341902
0.009931493420765831      168963.955894313
0.009998403261074859      175554.16758427123
0.009999982325294799      175703.2111668756
0.01000179098202045       175879.42566138567
0.010068355831933083      181924.0353684315
0.010129570980292024      186979.5596167654
0.01013626750946731       187502.42373286936
0.01014296630202547       188037.32544536534
0.010203818788944979      192422.23414931167
0.010266053748353227      196364.0000680499
0.01027126787891753       196671.1640134534
0.01027619191802441       196969.43651910976
0.010338495237889194      200277.47449523953
0.010404376009724043      203251.07608551445
0.01040474514116325       203266.7799322337
0.010405155594229006      203284.37858204934
0.010470984064301596      205756.5704216596
0.010529450036738781      207629.19323849282
0.01053706656429889       207852.1868718471
0.010545739635486951      208111.61182633488
0.01060300928488428       209688.1192645827
0.010652558668910649      210969.3145723855
0.010668813970753966      211365.09938264108
0.010687753479471509      211856.33634208163
0.010734404823277246      213084.8870473249
0.010773595190185246      214178.41060074975
0.010799834278936358      214942.286581104
0.010831246999544198      215970.15527746326
0.01086517982306136       217178.31280287824
0.010893034391993241      218270.12186723395
0.010930376288124273      219903.92542552346
0.010976381489132318      222262.77483076317
0.010995452261879802      223345.06287210798
0.011010679173153688      224271.11939887868
0.011060429430159408      227653.3370848776
0.01112324388425235       232822.12325548634
0.011125217583978561      233001.12845497558
0.011126742436556196      233143.69222601483
0.011189871944574065      239527.67817775527
0.011240882291896723      245594.82847879038
0.011254311787764256      247346.4376078539
0.011271961265955492      249760.08527186123
0.01131866631629945       256594.8754976571
0.011353409149400376      262201.6581288892
0.01138285928184678       267296.86089347064
0.011422482408863397      274649.2700907056
0.011446953241188362      279468.5861877109
0.011464959395183983      283202.5093033958
0.011511210454848158      293187.64676290634
0.011575019955510078      308199.7213747497
0.011575266860586084      308260.39058052545
0.011575440032408875      308304.13081146235
0.011638745238843397      324460.1121458021
0.011681508989302057      336018.6326428252
0.011702254257024727      341828.38027707493
0.011733955046409545      350870.1041608656
0.011766834691210324      360443.4621573653
0.011793160100658142      368332.10059647635
0.011828872972456963      379161.8813590555
0.01187829146523536       394461.4457556888
0.011890253276136624      398178.79582164966
0.011897471301365975      400480.47432321135
0.011949543640451334      416955.25091759535
0.01198870337535908       429457.03557530587
0.012007988140288051      435666.1283710554
0.012044734241285193      447466.5924223466
0.012066112906718187      454314.14703838574
0.01207570429781799       457420.2315879904
0.012124335978452853      473008.2383687266
0.012172107309992092      488266.5766605585
0.012185957871303646      492694.58429107105
0.012209297206171164      500102.2805582791
0.012245925607561985      511642.26266301813
0.012273432547042627      520348.01008430036
0.012309011021008665      531490.4752281818
0.012366979196331424      549531.1748973394
0.012375807248174248      552237.7302348164
0.012382559754159517      554384.2637127154
0.012449549797691556      575084.334509845
0.01254069927600531       603316.5951781572
0.012541466597662533      603555.1229326825
0.012542198787344805      603791.6008351714
0.012623212214459618      629175.0236709738
0.012707612312806267      656437.5625817551
0.012708506882331286      656732.0745419365
0.012709316440352215      657010.4809149767
0.012795130795618096      685863.091805561
0.012866330439716297      711057.2312180053
0.01288091143777991       716462.5827664819
0.012900451032009264      723778.5920900438
0.012967760929795163      749649.9748477347
0.013023558766872907      772394.7915062804
0.013054945595835983      785749.4368546455
0.013094613065856525      803164.320016051
0.013142213394796529      824914.3459042296
0.0131802657141186        843221.357844288
0.013229522394634582      867860.2693592373
0.013292799506620014      901342.5610978164
0.013316549055629623      914315.9685355328
0.013334798697341466      924738.4898653905
0.013403449810092543      965151.1120240553
0.013486898945882841      1018060.7963604894
0.013490099525922537      1020200.3186869054
0.01349445649473659       1023091.815181376
0.013576696106600186      1079903.8612728072
0.013637069030347034      1124522.2907654897
0.013663099759142365      1144686.7784832597
0.013699313626904448      1173378.084384905
0.013749461657338658      1214581.0565255077
0.013785393147380271      1245592.2900896636
0.013835809098011267      1290527.010931083
0.013907753145096895      1358036.3014826407
0.013922062025654387      1371987.4902689722
0.01393196234245582       1381966.2148405607
0.014008290704661553      1459739.0957203903
0.014076399701083722      1533120.416008538
0.01409441491126985       1553395.9949589246
0.014121718196450934      1584321.2692212001
0.014180538917384687      1652621.380523505
0.014218758451697195      1698672.3523053748
0.01426661010536066       1757463.8505207014
0.014342036305845112      1852795.5928276507
0.014352605718933837      1866287.3228407323
0.014359202962441924      1874951.0358969774
0.014438645472879801      1978589.2692537117
0.014497614293945938      2056699.4835601992
0.014524600552187916      2092785.381448899
0.01457003793524834       2153348.1200653645
0.014610546326220577      2207118.096867245
0.014634226820311316      2238881.990163276
0.014696494960097131      2320995.216326753
0.014769081908600835      2415066.344331022
0.014782374539944977      2432240.0479724994
0.014806314179901213      2462702.665223106
0.014868293662955508      2540100.6570553207
0.014902181233465227      2582005.991981137
0.014954194067193456      2644730.9172945223
0.015033733827398477      2737929.010063856
0.015040042425894242      2745327.743323876
0.015052215067750202      2759423.2448397214
0.015125961351393479      2842725.302628513
0.0151636094311669        2885090.0633159564
0.01521185704217437       2938751.4751028493
0.015292081927084977      3027823.799077679
0.01529771591425011       3034239.208843128
0.015309385595258185      3047374.389159312
0.015383656302652505      3131256.978717878
0.015418989974316103      3172528.623901056
0.01546958777896869       3232615.265628948
0.015544589985716388      3325281.6974632996
0.015555499004726095      3339390.613117648
0.015579806420051651      3370825.8272200166
0.015641485224323272      3453495.836288302
0.015668772014540967      3491971.2550282623
0.015727496808544444      3577109.540568395
0.015791693125979386      3675214.209270421
0.015813504969542334      3710079.2008029735
0.01586591874478907       3796035.41877896
0.01589956204869651       3852883.0833504205
0.015913367778252183      3877149.4795586173
0.015985697939968017      4006113.9917718745
0.016033785795935247      4095664.5736890286
0.016071847260374156      4168585.916126307
0.016153121440509944      4329013.733722383
0.01615801629011857       4339039.725343844
0.016171137964420497      4365662.542316707
0.01624430442648997       4516074.332074083
0.016271230449770198      4573169.1334975585
0.016330639785430277      4699347.957131351
0.016388293049265326      4823329.313086098
0.016417012164527126      4885989.702695031
0.016500683975539505      5068538.377251823
0.016503431317945398      5074576.162858433
0.01650436188470856       5076666.424918509
0.01658999846155459       5262904.824790053
0.01661929740836539       5327013.707381464
0.016676620304267507      5450308.622274687
0.016733305864602924      5570394.54563599
0.01676330345701246       5633415.4247432165
0.016846411749526308      5803043.87145804
0.016850054589491747      5810423.6375956265
0.016862485907739283      5835057.602851639
0.01693695982017751       5978557.239597555
0.016958507609073352      6019244.543121235
0.017023957802212365      6136884.456816803
0.01706973381016681       6215138.614115713
0.017111042191801325      6282623.805620668
0.017180134772993114      6388216.928533611
0.017198219897143204      6414643.5326905195
0.01726891751494242       6512066.953755746
0.017285513846535185      6533422.986920332
0.01728970733568295       6538940.865188081
0.01737298068756334       6639621.76791261
0.017398397780228194      6668975.298361414
0.017460560084253774      6736782.628698322
0.017506333572615992      6784833.858814041
0.01754825928694506       6828032.4501975635
0.017613534465484533      6894579.2791679045
0.017636085579346046      6918155.017245958
0.01772001959550964       7008318.223342907
0.01772404628321769       7012921.212733816
0.017744085204407123      7035657.259350581
0.017812202647370552      7116658.947452272
0.017825730712333912      7134222.602436026
0.017900521881172596      7235012.835664607
0.01793074636827401       7279724.05361208
0.017988995841543794      7370882.843840645
0.018035107135563163      7448868.238966377
0.018077632255558716      7525260.374157533
0.01813883029475095       7641792.261706486
0.018166438950351974      7697278.49595976
0.01824193267456143       7854662.2617691485
0.01825542384619971       7883957.440903915
0.01834443067360695       8079854.259787078
0.018344594959548502      8080224.210490732
0.018345764274278562      8082796.263921557
0.018434011892169776      8277491.796604361
0.01844627393148452       8304630.471341398
0.018523629633655333      8468826.652108274
0.018547548701344185      8518004.148897279
0.018613455811405263      8645330.668170149
0.018648270984736027      8708111.33297337
0.018703498849307828      8799345.665524112
0.01874845555308975       8865896.37217971
0.018793767294484016      8925445.964307273
0.018848116847338347      8986475.974137183
0.018884269821938124      9021095.46484908
0.018947268989567112      9069615.977779623
0.01897501523931878       9086843.401303362
0.019045925794225045      9119270.018330904
0.01906601249182518       9126015.501512023
0.01914410077892003       9142367.938907253
0.019157270667284718      9143973.655281015
0.01924180717457516       9147215.434373708
0.01924879900121415       9147109.193887938
0.019339057934095585      9141906.89940574
0.0193406068808267        9141778.845870819
0.019370881915760002      9138786.492509427
0.01943271813127371       9132863.375951841
0.019435850088549814      9132579.99055908
0.019525132127605573      9124538.56238234
0.01953220794976278       9124029.222260904
0.01961785177983142       9119033.739561012
0.01962815138910081       9118622.22900357
0.01971088718610738       9116683.984188074
0.019723692339414726      9116539.320101833
0.01980424865540131       9116636.036576567
0.01981884242883633       9116699.405820455
0.019897946586382786      9117499.552492404
0.019913612890142877      9117585.31683732
0.01999199137555493       9118037.407720719
0.02000801461254295       9118002.193093712
0.020086393481254187      9117698.63226701
0.020102058326043143      9117540.171606395
0.02018116360527918       9116857.702217659
0.020195754749081578      9116741.580175204
0.020276312828774453      9116723.300035985
0.020289114581402545      9116844.572079089
0.02037185261103302       9118813.204170413
0.02038214839495416       9119231.612207767
0.020467794706523046      9124212.755406225
0.02047486654214858       9124748.609575294
0.02056415109641762       9132749.811010405
0.020567279132835337      9133055.354768574
0.020629040826556155      9138676.839463506
0.02065938909625724       9141922.828058003
0.020660941714123405      9142065.485160198
0.020751195888558387      9147187.92071136
0.02075819089569017       9147346.423206056
0.020842723348783124      9143981.65288557
0.020855895766245146      9142436.287059555
0.02093398088763216       9125959.910317797
0.02095406933997611       9119248.869536689
0.02102497775684463       9086737.789061228
0.021052724901883257      9069504.805507246
0.021115723055211557      9020954.368658168
0.021151876018485623      8986308.73682246
0.021206225734086863      8925283.131383983
0.02125153654826595       8865731.618228251
0.021296494602644694      8799176.441750797
0.021351720652302078      8708005.297703072
0.02138653833295279       8645175.97367162
0.021452442805246268      8517980.112805434
0.021476365464882158      8468714.102811806
0.02155371780671643       8304666.598398748
0.021565984410861553      8277450.021374409
0.02165427211775645       8082791.24958092
0.021655402804894655      8080270.464579884
0.021655561651197693      8079912.006922786
0.021744575560592307      7884092.443361236
0.02175806066542729       7854810.4093615925
0.02183356228255359       7697467.634881096
0.021861164475873968      7642032.514483048
0.02192237095259272       7525477.863338037
0.021964889470517935      7449110.413235624
0.022011009445150168      7371106.025365074
0.02206925243313544       7279875.531446579
0.022099485531283866      7235211.895502932
0.02217427055803633       7134282.998526904
0.02218780688254397       7116792.571709555
0.02225596526800722       7035316.960608462
0.02227596535018023       7012945.328387328
0.022279984278958914      7008379.518207682
0.02236392808227206       6918062.167500149
0.02238647220788241       6894516.386702153
0.022451756399296287      6827842.335077534
0.02249367609874091       6784611.895459425
0.022539457635773762      6736509.666736391
0.0226016151608167        6668698.120089647
0.022627039043155276      6639286.416925845
0.02271030910635075       6538626.457413895
0.022714507793123947      6533069.020494257
0.022731123607553996      6511394.179750328
0.02280180346139972       6414311.615114693
0.0228198852582804        6387795.296853105
0.022888982627310542      6282339.860896053
0.022930289744907257      6214875.375423197
0.02297606821970509       6136672.209754009
0.023041519252828303      6019180.398546716
0.023063067139496282      5978442.57083508
0.023137534994830688      5835224.242518206
0.023149973030995613      5810425.604534442
0.023153618149081935      5803037.12286653
0.023236724557704706      5633532.095288185
0.02326672673709139       5570544.530953805
0.02332340783358799       5450501.106187459
0.023380737459567442      5327175.162281683
0.02341002952615948       5263136.834864444
0.02349567474648243       5076857.580044925
0.023496596247122317      5074796.628542063
0.023499316621140045      5068899.916050846
0.023583014695205864      4886165.816304562
0.023611744852997045      4823534.521667194
0.02366938614860134       4699459.164486858
0.023728808026418476      4573132.2613082025
0.02375572033714274       4516102.770298942
0.023828845437836383      4365530.252089384
0.023842007024469116      4338970.094630299
0.02384691701185423       4328922.079293021
0.02392817447557907       4168419.710923486
0.02396625177742534       4095435.3154879194
0.02401432203045385       4005885.6231008433
0.024086668167272535      3876907.1800137702
0.024100455976454313      3852628.3878529025
0.02413405501098967       3795765.4712066744
0.024186510845231286      3709828.1950463816
0.024208340385666684      3674869.4030490634
0.024272516513145534      3576889.5081208646
0.024331257193693827      3491825.392656292
0.024358525144176683      3453334.785722247
0.02442016508626491       3370933.313024149
0.024444508182772606      3339314.2514540125
0.0244554322537498        3325152.1166495737
0.024530417044141044      3232625.7787542273
0.02458102380651404       3172581.323933088
0.024616347803611997      3131337.044688259
0.024690610907376814      3047524.2051833505
0.024702289824496213      3034368.6096559605
0.0247079275540613        3027961.1521543143
0.0247881519231172        2938913.934223918
0.02483640317747436       2885240.221434699
0.02487405125717683       2842884.113520982
0.02494779373926237       2759471.769003659
0.02495997278054014       2745452.944282919
0.0249662850650287        2738075.7448723065
0.025045822144055308      2644807.560168007
0.02509784159683541       2582018.2071651
0.025131722482914096      2540117.838523999
0.02519368747093647       2462623.741091315
0.025217641112465494      2432193.4291061703
0.02523094183930419       2415018.306805262
0.0253035203114491        2320891.679034414
0.025365796903745533      2238735.0389881427
0.02538946867169317       2206978.0330878743
0.025429961937715736      2153214.9235227257
0.025475414233387898      2092626.7617009284
0.0255024094505126        2056518.8515822582
0.02556136917984489       1978433.9082767451
0.0256408207576463        1874812.484747752
0.02564740886996223       1866156.3787828516
0.025657963638870136      1852667.4854671892
0.025733404500387604      1757368.8714635407
0.02578126552447904       1698590.7891350195
0.025819475721583794      1652568.7515702283
0.025878281829255518      1584312.9125060341
0.02590560108354881       1553382.9049740091
0.02592363590183239       1533095.520632208
0.02599172903769279       1459754.5297494577
0.026068104114781665      1381952.6428306797
0.026077964805862285      1372017.9895539864
0.026092212383429896      1358129.334295408
0.026164227458576033      1290552.70931545
0.026214717391649756      1245555.116875975
0.026250591531990733      1214586.2094642774
0.026300635868714173      1173467.1877222257
0.026337196846756034      1144482.5484264833
0.026363686514970147      1123947.7422224008
0.026424123045298654      1079315.2083221523
0.026505782950386893      1022930.339080331
0.026511166871357825      1019327.0441135442
0.026515148450263638      1016657.6929667577
0.02659866430231188       963804.9159602543
0.026668936121362556      922564.835305205
0.02668626224880317       912672.9846087871
0.026708605784090365      900457.5160016225
0.026774384959117294      865764.1792159427
0.02682515645503457       840488.4474421088
0.026862850566526816      822448.93179829
0.026910579300249107      800747.5493217316
0.026951631645224725      782825.9592635811
0.02698396716284436       769194.7421673989
0.027040858429151854      746171.0230613255
0.027110244747422116      719655.5414603195
0.02713024888542182       712306.8694916469
0.027146971514996822      706242.2003218889
0.027219752934934588      680700.9450958275
0.027298399025447773      654400.54698592
0.02730789377827815       651291.4758950804